s 0.003297396 _0_ RTR  --- 0 message 32 [0 0 0 0] ------- [0:255 -1:255 32 0] 
s 0.003592396 _0_ MAC  --- 0 message 90 [0 ffffffff 0 800] ------- [0:255 -1:255 32 0] 
r 0.004313063 _28_ MAC  --- 0 message 32 [0 ffffffff 0 800] ------- [0:255 -1:255 32 0] 
r 0.004313063 _22_ MAC  --- 0 message 32 [0 ffffffff 0 800] ------- [0:255 -1:255 32 0] 
r 0.004313063 _35_ MAC  --- 0 message 32 [0 ffffffff 0 800] ------- [0:255 -1:255 32 0] 
r 0.004313063 _29_ MAC  --- 0 message 32 [0 ffffffff 0 800] ------- [0:255 -1:255 32 0] 
r 0.004338063 _28_ RTR  --- 0 message 32 [0 ffffffff 0 800] ------- [0:255 -1:255 32 0] 
r 0.004338063 _22_ RTR  --- 0 message 32 [0 ffffffff 0 800] ------- [0:255 -1:255 32 0] 
r 0.004338063 _35_ RTR  --- 0 message 32 [0 ffffffff 0 800] ------- [0:255 -1:255 32 0] 
r 0.004338063 _29_ RTR  --- 0 message 32 [0 ffffffff 0 800] ------- [0:255 -1:255 32 0] 
s 0.024889846 _44_ RTR  --- 1 message 32 [0 0 0 0] ------- [44:255 -1:255 32 0] 
s 0.025204846 _44_ MAC  --- 1 message 90 [0 ffffffff 2c 800] ------- [44:255 -1:255 32 0] 
r 0.025925513 _37_ MAC  --- 1 message 32 [0 ffffffff 2c 800] ------- [44:255 -1:255 32 0] 
r 0.025925513 _43_ MAC  --- 1 message 32 [0 ffffffff 2c 800] ------- [44:255 -1:255 32 0] 
r 0.025925513 _51_ MAC  --- 1 message 32 [0 ffffffff 2c 800] ------- [44:255 -1:255 32 0] 
r 0.025925513 _45_ MAC  --- 1 message 32 [0 ffffffff 2c 800] ------- [44:255 -1:255 32 0] 
r 0.025950513 _37_ RTR  --- 1 message 32 [0 ffffffff 2c 800] ------- [44:255 -1:255 32 0] 
r 0.025950513 _43_ RTR  --- 1 message 32 [0 ffffffff 2c 800] ------- [44:255 -1:255 32 0] 
r 0.025950513 _51_ RTR  --- 1 message 32 [0 ffffffff 2c 800] ------- [44:255 -1:255 32 0] 
r 0.025950513 _45_ RTR  --- 1 message 32 [0 ffffffff 2c 800] ------- [44:255 -1:255 32 0] 
s 0.036136279 _2_ RTR  --- 2 message 32 [0 0 0 0] ------- [2:255 -1:255 32 0] 
s 0.036691279 _2_ MAC  --- 2 message 90 [0 ffffffff 2 800] ------- [2:255 -1:255 32 0] 
r 0.037412064 _11_ MAC  --- 2 message 32 [0 ffffffff 2 800] ------- [2:255 -1:255 32 0] 
r 0.037437064 _11_ RTR  --- 2 message 32 [0 ffffffff 2 800] ------- [2:255 -1:255 32 0] 
s 0.095349182 _13_ RTR  --- 3 message 32 [0 0 0 0] ------- [13:255 -1:255 32 0] 
s 0.095464182 _13_ MAC  --- 3 message 90 [0 ffffffff d 800] ------- [13:255 -1:255 32 0] 
r 0.096184849 _6_ MAC  --- 3 message 32 [0 ffffffff d 800] ------- [13:255 -1:255 32 0] 
r 0.096184849 _12_ MAC  --- 3 message 32 [0 ffffffff d 800] ------- [13:255 -1:255 32 0] 
r 0.096184849 _20_ MAC  --- 3 message 32 [0 ffffffff d 800] ------- [13:255 -1:255 32 0] 
r 0.096184849 _14_ MAC  --- 3 message 32 [0 ffffffff d 800] ------- [13:255 -1:255 32 0] 
r 0.096209849 _6_ RTR  --- 3 message 32 [0 ffffffff d 800] ------- [13:255 -1:255 32 0] 
r 0.096209849 _12_ RTR  --- 3 message 32 [0 ffffffff d 800] ------- [13:255 -1:255 32 0] 
r 0.096209849 _20_ RTR  --- 3 message 32 [0 ffffffff d 800] ------- [13:255 -1:255 32 0] 
r 0.096209849 _14_ RTR  --- 3 message 32 [0 ffffffff d 800] ------- [13:255 -1:255 32 0] 
s 0.125456310 _43_ RTR  --- 4 message 32 [0 0 0 0] ------- [43:255 -1:255 32 0] 
s 0.125631310 _43_ MAC  --- 4 message 90 [0 ffffffff 2b 800] ------- [43:255 -1:255 32 0] 
r 0.126351976 _36_ MAC  --- 4 message 32 [0 ffffffff 2b 800] ------- [43:255 -1:255 32 0] 
r 0.126351976 _42_ MAC  --- 4 message 32 [0 ffffffff 2b 800] ------- [43:255 -1:255 32 0] 
r 0.126351976 _50_ MAC  --- 4 message 32 [0 ffffffff 2b 800] ------- [43:255 -1:255 32 0] 
r 0.126351976 _44_ MAC  --- 4 message 32 [0 ffffffff 2b 800] ------- [43:255 -1:255 32 0] 
r 0.126376976 _36_ RTR  --- 4 message 32 [0 ffffffff 2b 800] ------- [43:255 -1:255 32 0] 
r 0.126376976 _42_ RTR  --- 4 message 32 [0 ffffffff 2b 800] ------- [43:255 -1:255 32 0] 
r 0.126376976 _50_ RTR  --- 4 message 32 [0 ffffffff 2b 800] ------- [43:255 -1:255 32 0] 
r 0.126376976 _44_ RTR  --- 4 message 32 [0 ffffffff 2b 800] ------- [43:255 -1:255 32 0] 
s 0.177127344 _3_ RTR  --- 5 message 32 [0 0 0 0] ------- [3:255 -1:255 32 0] 
s 0.177262344 _3_ MAC  --- 5 message 90 [0 ffffffff 3 800] ------- [3:255 -1:255 32 0] 
r 0.177983082 _46_ MAC  --- 5 message 32 [0 ffffffff 3 800] ------- [3:255 -1:255 32 0] 
r 0.178008082 _46_ RTR  --- 5 message 32 [0 ffffffff 3 800] ------- [3:255 -1:255 32 0] 
s 0.197024172 _19_ RTR  --- 6 message 32 [0 0 0 0] ------- [19:255 -1:255 32 0] 
s 0.197159172 _19_ MAC  --- 6 message 90 [0 ffffffff 13 800] ------- [19:255 -1:255 32 0] 
r 0.197879839 _12_ MAC  --- 6 message 32 [0 ffffffff 13 800] ------- [19:255 -1:255 32 0] 
r 0.197879839 _26_ MAC  --- 6 message 32 [0 ffffffff 13 800] ------- [19:255 -1:255 32 0] 
r 0.197879839 _20_ MAC  --- 6 message 32 [0 ffffffff 13 800] ------- [19:255 -1:255 32 0] 
r 0.197904839 _12_ RTR  --- 6 message 32 [0 ffffffff 13 800] ------- [19:255 -1:255 32 0] 
r 0.197904839 _26_ RTR  --- 6 message 32 [0 ffffffff 13 800] ------- [19:255 -1:255 32 0] 
r 0.197904839 _20_ RTR  --- 6 message 32 [0 ffffffff 13 800] ------- [19:255 -1:255 32 0] 
s 0.221957530 _36_ RTR  --- 7 message 32 [0 0 0 0] ------- [36:255 -1:255 32 0] 
s 0.222472530 _36_ MAC  --- 7 message 90 [0 ffffffff 24 800] ------- [36:255 -1:255 32 0] 
r 0.223193196 _29_ MAC  --- 7 message 32 [0 ffffffff 24 800] ------- [36:255 -1:255 32 0] 
r 0.223193196 _35_ MAC  --- 7 message 32 [0 ffffffff 24 800] ------- [36:255 -1:255 32 0] 
r 0.223193196 _43_ MAC  --- 7 message 32 [0 ffffffff 24 800] ------- [36:255 -1:255 32 0] 
r 0.223193196 _37_ MAC  --- 7 message 32 [0 ffffffff 24 800] ------- [36:255 -1:255 32 0] 
r 0.223218196 _29_ RTR  --- 7 message 32 [0 ffffffff 24 800] ------- [36:255 -1:255 32 0] 
r 0.223218196 _35_ RTR  --- 7 message 32 [0 ffffffff 24 800] ------- [36:255 -1:255 32 0] 
r 0.223218196 _43_ RTR  --- 7 message 32 [0 ffffffff 24 800] ------- [36:255 -1:255 32 0] 
r 0.223218196 _37_ RTR  --- 7 message 32 [0 ffffffff 24 800] ------- [36:255 -1:255 32 0] 
s 0.230697891 _42_ RTR  --- 8 message 32 [0 0 0 0] ------- [42:255 -1:255 32 0] 
s 0.230812891 _42_ MAC  --- 8 message 90 [0 ffffffff 2a 800] ------- [42:255 -1:255 32 0] 
r 0.231533557 _35_ MAC  --- 8 message 32 [0 ffffffff 2a 800] ------- [42:255 -1:255 32 0] 
r 0.231533557 _41_ MAC  --- 8 message 32 [0 ffffffff 2a 800] ------- [42:255 -1:255 32 0] 
r 0.231533557 _49_ MAC  --- 8 message 32 [0 ffffffff 2a 800] ------- [42:255 -1:255 32 0] 
r 0.231533557 _43_ MAC  --- 8 message 32 [0 ffffffff 2a 800] ------- [42:255 -1:255 32 0] 
r 0.231558557 _35_ RTR  --- 8 message 32 [0 ffffffff 2a 800] ------- [42:255 -1:255 32 0] 
r 0.231558557 _41_ RTR  --- 8 message 32 [0 ffffffff 2a 800] ------- [42:255 -1:255 32 0] 
r 0.231558557 _49_ RTR  --- 8 message 32 [0 ffffffff 2a 800] ------- [42:255 -1:255 32 0] 
r 0.231558557 _43_ RTR  --- 8 message 32 [0 ffffffff 2a 800] ------- [42:255 -1:255 32 0] 
s 0.231680272 _15_ RTR  --- 9 message 32 [0 0 0 0] ------- [15:255 -1:255 32 0] 
s 0.231975272 _15_ MAC  --- 9 message 90 [0 ffffffff f 800] ------- [15:255 -1:255 32 0] 
r 0.232695939 _8_ MAC  --- 9 message 32 [0 ffffffff f 800] ------- [15:255 -1:255 32 0] 
r 0.232695939 _14_ MAC  --- 9 message 32 [0 ffffffff f 800] ------- [15:255 -1:255 32 0] 
r 0.232695939 _22_ MAC  --- 9 message 32 [0 ffffffff f 800] ------- [15:255 -1:255 32 0] 
r 0.232695939 _16_ MAC  --- 9 message 32 [0 ffffffff f 800] ------- [15:255 -1:255 32 0] 
r 0.232720939 _8_ RTR  --- 9 message 32 [0 ffffffff f 800] ------- [15:255 -1:255 32 0] 
r 0.232720939 _14_ RTR  --- 9 message 32 [0 ffffffff f 800] ------- [15:255 -1:255 32 0] 
r 0.232720939 _22_ RTR  --- 9 message 32 [0 ffffffff f 800] ------- [15:255 -1:255 32 0] 
r 0.232720939 _16_ RTR  --- 9 message 32 [0 ffffffff f 800] ------- [15:255 -1:255 32 0] 
s 0.253163890 _47_ RTR  --- 10 message 32 [0 0 0 0] ------- [47:255 -1:255 32 0] 
s 0.253638890 _47_ MAC  --- 10 message 90 [0 ffffffff 2f 800] ------- [47:255 -1:255 32 0] 
r 0.254359556 _40_ MAC  --- 10 message 32 [0 ffffffff 2f 800] ------- [47:255 -1:255 32 0] 
r 0.254359556 _46_ MAC  --- 10 message 32 [0 ffffffff 2f 800] ------- [47:255 -1:255 32 0] 
r 0.254359556 _48_ MAC  --- 10 message 32 [0 ffffffff 2f 800] ------- [47:255 -1:255 32 0] 
r 0.254384556 _40_ RTR  --- 10 message 32 [0 ffffffff 2f 800] ------- [47:255 -1:255 32 0] 
r 0.254384556 _46_ RTR  --- 10 message 32 [0 ffffffff 2f 800] ------- [47:255 -1:255 32 0] 
r 0.254384556 _48_ RTR  --- 10 message 32 [0 ffffffff 2f 800] ------- [47:255 -1:255 32 0] 
s 0.331340703 _12_ RTR  --- 11 message 32 [0 0 0 0] ------- [12:255 -1:255 32 0] 
s 0.331415703 _12_ MAC  --- 11 message 90 [0 ffffffff c 800] ------- [12:255 -1:255 32 0] 
r 0.332136370 _5_ MAC  --- 11 message 32 [0 ffffffff c 800] ------- [12:255 -1:255 32 0] 
r 0.332136370 _19_ MAC  --- 11 message 32 [0 ffffffff c 800] ------- [12:255 -1:255 32 0] 
r 0.332136370 _13_ MAC  --- 11 message 32 [0 ffffffff c 800] ------- [12:255 -1:255 32 0] 
r 0.332161370 _5_ RTR  --- 11 message 32 [0 ffffffff c 800] ------- [12:255 -1:255 32 0] 
r 0.332161370 _19_ RTR  --- 11 message 32 [0 ffffffff c 800] ------- [12:255 -1:255 32 0] 
r 0.332161370 _13_ RTR  --- 11 message 32 [0 ffffffff c 800] ------- [12:255 -1:255 32 0] 
s 0.358410464 _18_ RTR  --- 12 message 32 [0 0 0 0] ------- [18:255 -1:255 32 0] 
s 0.358905464 _18_ MAC  --- 12 message 90 [0 ffffffff 12 800] ------- [18:255 -1:255 32 0] 
r 0.359626131 _11_ MAC  --- 12 message 32 [0 ffffffff 12 800] ------- [18:255 -1:255 32 0] 
r 0.359626131 _17_ MAC  --- 12 message 32 [0 ffffffff 12 800] ------- [18:255 -1:255 32 0] 
r 0.359626131 _25_ MAC  --- 12 message 32 [0 ffffffff 12 800] ------- [18:255 -1:255 32 0] 
r 0.359651131 _11_ RTR  --- 12 message 32 [0 ffffffff 12 800] ------- [18:255 -1:255 32 0] 
r 0.359651131 _17_ RTR  --- 12 message 32 [0 ffffffff 12 800] ------- [18:255 -1:255 32 0] 
r 0.359651131 _25_ RTR  --- 12 message 32 [0 ffffffff 12 800] ------- [18:255 -1:255 32 0] 
s 0.382282838 _38_ RTR  --- 13 message 32 [0 0 0 0] ------- [38:255 -1:255 32 0] 
s 0.382377838 _38_ MAC  --- 13 message 90 [0 ffffffff 26 800] ------- [38:255 -1:255 32 0] 
r 0.383098505 _31_ MAC  --- 13 message 32 [0 ffffffff 26 800] ------- [38:255 -1:255 32 0] 
r 0.383098505 _37_ MAC  --- 13 message 32 [0 ffffffff 26 800] ------- [38:255 -1:255 32 0] 
r 0.383098505 _45_ MAC  --- 13 message 32 [0 ffffffff 26 800] ------- [38:255 -1:255 32 0] 
r 0.383123505 _31_ RTR  --- 13 message 32 [0 ffffffff 26 800] ------- [38:255 -1:255 32 0] 
r 0.383123505 _37_ RTR  --- 13 message 32 [0 ffffffff 26 800] ------- [38:255 -1:255 32 0] 
r 0.383123505 _45_ RTR  --- 13 message 32 [0 ffffffff 26 800] ------- [38:255 -1:255 32 0] 
s 0.438831533 _29_ RTR  --- 14 message 32 [0 0 0 0] ------- [29:255 -1:255 32 0] 
s 0.438966533 _29_ MAC  --- 14 message 90 [0 ffffffff 1d 800] ------- [29:255 -1:255 32 0] 
r 0.439687200 _23_ MAC  --- 14 message 32 [0 ffffffff 1d 800] ------- [29:255 -1:255 32 0] 
r 0.439687200 _0_ MAC  --- 14 message 32 [0 ffffffff 1d 800] ------- [29:255 -1:255 32 0] 
r 0.439687200 _36_ MAC  --- 14 message 32 [0 ffffffff 1d 800] ------- [29:255 -1:255 32 0] 
r 0.439687200 _30_ MAC  --- 14 message 32 [0 ffffffff 1d 800] ------- [29:255 -1:255 32 0] 
r 0.439712200 _23_ RTR  --- 14 message 32 [0 ffffffff 1d 800] ------- [29:255 -1:255 32 0] 
r 0.439712200 _0_ RTR  --- 14 message 32 [0 ffffffff 1d 800] ------- [29:255 -1:255 32 0] 
r 0.439712200 _36_ RTR  --- 14 message 32 [0 ffffffff 1d 800] ------- [29:255 -1:255 32 0] 
r 0.439712200 _30_ RTR  --- 14 message 32 [0 ffffffff 1d 800] ------- [29:255 -1:255 32 0] 
s 0.473575725 _8_ RTR  --- 15 message 32 [0 0 0 0] ------- [8:255 -1:255 32 0] 
s 0.473670725 _8_ MAC  --- 15 message 90 [0 ffffffff 8 800] ------- [8:255 -1:255 32 0] 
r 0.474391392 _7_ MAC  --- 15 message 32 [0 ffffffff 8 800] ------- [8:255 -1:255 32 0] 
r 0.474391392 _15_ MAC  --- 15 message 32 [0 ffffffff 8 800] ------- [8:255 -1:255 32 0] 
r 0.474391392 _9_ MAC  --- 15 message 32 [0 ffffffff 8 800] ------- [8:255 -1:255 32 0] 
r 0.474416392 _7_ RTR  --- 15 message 32 [0 ffffffff 8 800] ------- [8:255 -1:255 32 0] 
r 0.474416392 _15_ RTR  --- 15 message 32 [0 ffffffff 8 800] ------- [8:255 -1:255 32 0] 
r 0.474416392 _9_ RTR  --- 15 message 32 [0 ffffffff 8 800] ------- [8:255 -1:255 32 0] 
s 0.484592776 _30_ RTR  --- 16 message 32 [0 0 0 0] ------- [30:255 -1:255 32 0] 
s 0.484687776 _30_ MAC  --- 16 message 90 [0 ffffffff 1e 800] ------- [30:255 -1:255 32 0] 
r 0.485408443 _24_ MAC  --- 16 message 32 [0 ffffffff 1e 800] ------- [30:255 -1:255 32 0] 
r 0.485408443 _29_ MAC  --- 16 message 32 [0 ffffffff 1e 800] ------- [30:255 -1:255 32 0] 
r 0.485408443 _37_ MAC  --- 16 message 32 [0 ffffffff 1e 800] ------- [30:255 -1:255 32 0] 
r 0.485408443 _31_ MAC  --- 16 message 32 [0 ffffffff 1e 800] ------- [30:255 -1:255 32 0] 
r 0.485433443 _24_ RTR  --- 16 message 32 [0 ffffffff 1e 800] ------- [30:255 -1:255 32 0] 
r 0.485433443 _29_ RTR  --- 16 message 32 [0 ffffffff 1e 800] ------- [30:255 -1:255 32 0] 
r 0.485433443 _37_ RTR  --- 16 message 32 [0 ffffffff 1e 800] ------- [30:255 -1:255 32 0] 
r 0.485433443 _31_ RTR  --- 16 message 32 [0 ffffffff 1e 800] ------- [30:255 -1:255 32 0] 
v 0.5 eval {set sim_annotation {The node 5 broadcast the 'temperature' Packet to its neighbour 6 at timeslot 0.5}}
s 0.500000000 _5_ AGT  --- 17 cbr 10 [0 0 0 0] ------- [5:0 6:1 32 0] [0] 0 0
r 0.500000000 _5_ RTR  --- 17 cbr 10 [0 0 0 0] ------- [5:0 6:1 32 0] [0] 0 0
v 0.5 eval {set sim_annotation {The node 5 broadcast the 'temperature' Packet to its neighbour 12 at timeslot 0.5}}
s 0.500000000 _5_ AGT  --- 18 cbr 10 [0 0 0 0] ------- [5:1 12:0 32 0] [0] 0 0
r 0.500000000 _5_ RTR  --- 18 cbr 10 [0 0 0 0] ------- [5:1 12:0 32 0] [0] 0 0
s 0.500000000 _5_ RTR  --- 18 cbr 30 [0 0 0 0] ------- [5:1 12:0 32 12] [0] 0 0
v 0.5 eval {set sim_annotation {The node 5 broadcast the 'temperature' Packet to its neighbour 1 at timeslot 0.5}}
s 0.500000000 _5_ AGT  --- 19 cbr 10 [0 0 0 0] ------- [5:2 1:1 32 0] [0] 0 0
r 0.500000000 _5_ RTR  --- 19 cbr 10 [0 0 0 0] ------- [5:2 1:1 32 0] [0] 0 0
s 0.500435000 _5_ MAC  --- 0 ARP 86 [0 ffffffff 5 806] ------- [REQUEST 5/5 0/12]
r 0.501123667 _12_ MAC  --- 0 ARP 28 [0 ffffffff 5 806] ------- [REQUEST 5/5 0/12]
r 0.501123667 _6_ MAC  --- 0 ARP 28 [0 ffffffff 5 806] ------- [REQUEST 5/5 0/12]
r 0.501123790 _1_ MAC  --- 0 ARP 28 [0 ffffffff 5 806] ------- [REQUEST 5/5 0/12]
s 0.501558667 _12_ MAC  --- 0 RTS 44 [52e 5 c 0] 
r 0.501911333 _5_ MAC  --- 0 RTS 44 [52e 5 c 0] 
s 0.501921333 _5_ MAC  --- 0 CTS 38 [3f4 c 0 0] 
r 0.502226000 _12_ MAC  --- 0 CTS 38 [3f4 c 0 0] 
s 0.502236000 _12_ MAC  --- 0 ARP 86 [13a 5 c 806] ------- [REPLY 12/12 5/5]
r 0.502924667 _5_ MAC  --- 0 ARP 28 [13a 5 c 806] ------- [REPLY 12/12 5/5]
s 0.502934667 _5_ MAC  --- 0 ACK 38 [0 c 0 0] 
r 0.503239333 _12_ MAC  --- 0 ACK 38 [0 c 0 0] 
s 0.503348667 _5_ MAC  --- 0 RTS 44 [53e c 5 0] 
r 0.503701333 _12_ MAC  --- 0 RTS 44 [53e c 5 0] 
s 0.503711333 _12_ MAC  --- 0 CTS 38 [404 5 0 0] 
r 0.504016000 _5_ MAC  --- 0 CTS 38 [404 5 0 0] 
s 0.504026000 _5_ MAC  --- 18 cbr 88 [13a c 5 800] ------- [5:1 12:0 32 12] [0] 0 0
r 0.504730667 _12_ MAC  --- 18 cbr 30 [13a c 5 800] ------- [5:1 12:0 32 12] [0] 1 0
s 0.504740667 _12_ MAC  --- 0 ACK 38 [0 5 0 0] 
r 0.504755667 _12_ AGT  --- 18 cbr 30 [13a c 5 800] ------- [5:1 12:0 32 12] [0] 1 0
r 0.505045333 _5_ MAC  --- 0 ACK 38 [0 5 0 0] 
s 0.515572616 _49_ RTR  --- 20 message 32 [0 0 0 0] ------- [49:255 -1:255 32 0] 
s 0.515827616 _49_ MAC  --- 20 message 90 [0 ffffffff 31 800] ------- [49:255 -1:255 32 0] 
r 0.516548282 _42_ MAC  --- 20 message 32 [0 ffffffff 31 800] ------- [49:255 -1:255 32 0] 
r 0.516548282 _48_ MAC  --- 20 message 32 [0 ffffffff 31 800] ------- [49:255 -1:255 32 0] 
r 0.516548282 _50_ MAC  --- 20 message 32 [0 ffffffff 31 800] ------- [49:255 -1:255 32 0] 
r 0.516573282 _42_ RTR  --- 20 message 32 [0 ffffffff 31 800] ------- [49:255 -1:255 32 0] 
r 0.516573282 _48_ RTR  --- 20 message 32 [0 ffffffff 31 800] ------- [49:255 -1:255 32 0] 
r 0.516573282 _50_ RTR  --- 20 message 32 [0 ffffffff 31 800] ------- [49:255 -1:255 32 0] 
s 0.517942746 _22_ RTR  --- 21 message 32 [0 0 0 0] ------- [22:255 -1:255 32 0] 
s 0.518117746 _22_ MAC  --- 21 message 90 [0 ffffffff 16 800] ------- [22:255 -1:255 32 0] 
r 0.518838413 _15_ MAC  --- 21 message 32 [0 ffffffff 16 800] ------- [22:255 -1:255 32 0] 
r 0.518838413 _0_ MAC  --- 21 message 32 [0 ffffffff 16 800] ------- [22:255 -1:255 32 0] 
r 0.518838413 _21_ MAC  --- 21 message 32 [0 ffffffff 16 800] ------- [22:255 -1:255 32 0] 
r 0.518838413 _23_ MAC  --- 21 message 32 [0 ffffffff 16 800] ------- [22:255 -1:255 32 0] 
r 0.518863413 _15_ RTR  --- 21 message 32 [0 ffffffff 16 800] ------- [22:255 -1:255 32 0] 
r 0.518863413 _0_ RTR  --- 21 message 32 [0 ffffffff 16 800] ------- [22:255 -1:255 32 0] 
r 0.518863413 _21_ RTR  --- 21 message 32 [0 ffffffff 16 800] ------- [22:255 -1:255 32 0] 
r 0.518863413 _23_ RTR  --- 21 message 32 [0 ffffffff 16 800] ------- [22:255 -1:255 32 0] 
s 0.550000000 _5_ AGT  --- 22 cbr 10 [0 0 0 0] ------- [5:0 6:1 32 0] [1] 0 0
r 0.550000000 _5_ RTR  --- 22 cbr 10 [0 0 0 0] ------- [5:0 6:1 32 0] [1] 0 0
s 0.550000000 _5_ AGT  --- 23 cbr 10 [0 0 0 0] ------- [5:1 12:0 32 0] [1] 0 0
r 0.550000000 _5_ RTR  --- 23 cbr 10 [0 0 0 0] ------- [5:1 12:0 32 0] [1] 0 0
s 0.550000000 _5_ RTR  --- 23 cbr 30 [0 0 0 0] ------- [5:1 12:0 32 12] [1] 0 0
s 0.550000000 _5_ AGT  --- 24 cbr 10 [0 0 0 0] ------- [5:2 1:1 32 0] [1] 0 0
r 0.550000000 _5_ RTR  --- 24 cbr 10 [0 0 0 0] ------- [5:2 1:1 32 0] [1] 0 0
s 0.550615000 _5_ MAC  --- 0 RTS 44 [53e c 5 0] 
r 0.550967667 _12_ MAC  --- 0 RTS 44 [53e c 5 0] 
s 0.550977667 _12_ MAC  --- 0 CTS 38 [404 5 0 0] 
r 0.551282333 _5_ MAC  --- 0 CTS 38 [404 5 0 0] 
s 0.551292333 _5_ MAC  --- 23 cbr 88 [13a c 5 800] ------- [5:1 12:0 32 12] [1] 0 0
r 0.551997000 _12_ MAC  --- 23 cbr 30 [13a c 5 800] ------- [5:1 12:0 32 12] [1] 1 0
s 0.552007000 _12_ MAC  --- 0 ACK 38 [0 5 0 0] 
r 0.552022000 _12_ AGT  --- 23 cbr 30 [13a c 5 800] ------- [5:1 12:0 32 12] [1] 1 0
r 0.552311667 _5_ MAC  --- 0 ACK 38 [0 5 0 0] 
s 0.618745095 _10_ RTR  --- 25 message 32 [0 0 0 0] ------- [10:255 -1:255 32 0] 
s 0.619040095 _10_ MAC  --- 25 message 90 [0 ffffffff a 800] ------- [10:255 -1:255 32 0] 
r 0.619760762 _9_ MAC  --- 25 message 32 [0 ffffffff a 800] ------- [10:255 -1:255 32 0] 
r 0.619760762 _17_ MAC  --- 25 message 32 [0 ffffffff a 800] ------- [10:255 -1:255 32 0] 
r 0.619760762 _11_ MAC  --- 25 message 32 [0 ffffffff a 800] ------- [10:255 -1:255 32 0] 
r 0.619785762 _9_ RTR  --- 25 message 32 [0 ffffffff a 800] ------- [10:255 -1:255 32 0] 
r 0.619785762 _17_ RTR  --- 25 message 32 [0 ffffffff a 800] ------- [10:255 -1:255 32 0] 
r 0.619785762 _11_ RTR  --- 25 message 32 [0 ffffffff a 800] ------- [10:255 -1:255 32 0] 
s 0.630257646 _6_ RTR  --- 26 message 32 [0 0 0 0] ------- [6:255 -1:255 32 0] 
s 0.630852646 _6_ MAC  --- 26 message 90 [0 ffffffff 6 800] ------- [6:255 -1:255 32 0] 
r 0.631573313 _5_ MAC  --- 26 message 32 [0 ffffffff 6 800] ------- [6:255 -1:255 32 0] 
r 0.631573313 _13_ MAC  --- 26 message 32 [0 ffffffff 6 800] ------- [6:255 -1:255 32 0] 
r 0.631573313 _7_ MAC  --- 26 message 32 [0 ffffffff 6 800] ------- [6:255 -1:255 32 0] 
r 0.631598313 _5_ RTR  --- 26 message 32 [0 ffffffff 6 800] ------- [6:255 -1:255 32 0] 
s 0.631598313 _5_ RTR  --- 17 cbr 50 [0 0 0 0] ------- [5:0 6:1 32 6] [0] 0 0
s 0.631598313 _5_ RTR  --- 22 cbr 50 [0 0 0 0] ------- [5:0 6:1 32 6] [1] 0 0
D 0.631598313 _5_ IFQ  ARP 17 cbr 50 [0 0 5 800] ------- [5:0 6:1 32 6] [0] 0 0
r 0.631598313 _13_ RTR  --- 26 message 32 [0 ffffffff 6 800] ------- [6:255 -1:255 32 0] 
r 0.631598313 _7_ RTR  --- 26 message 32 [0 ffffffff 6 800] ------- [6:255 -1:255 32 0] 
s 0.631833313 _5_ MAC  --- 0 ARP 86 [0 ffffffff 5 806] ------- [REQUEST 5/5 0/6]
r 0.632521980 _12_ MAC  --- 0 ARP 28 [0 ffffffff 5 806] ------- [REQUEST 5/5 0/6]
r 0.632521980 _6_ MAC  --- 0 ARP 28 [0 ffffffff 5 806] ------- [REQUEST 5/5 0/6]
r 0.632522103 _1_ MAC  --- 0 ARP 28 [0 ffffffff 5 806] ------- [REQUEST 5/5 0/6]
s 0.632571313 _5_ MAC  --- 0 ARP 86 [0 ffffffff 5 806] ------- [REQUEST 5/5 0/6]
r 0.633259980 _12_ MAC  --- 0 ARP 28 [0 ffffffff 5 806] ------- [REQUEST 5/5 0/6]
r 0.633259980 _6_ MAC  --- 0 ARP 28 [0 ffffffff 5 806] ------- [REQUEST 5/5 0/6]
r 0.633260103 _1_ MAC  --- 0 ARP 28 [0 ffffffff 5 806] ------- [REQUEST 5/5 0/6]
s 0.633689980 _6_ MAC  --- 0 RTS 44 [52e 5 6 0] 
r 0.634042646 _5_ MAC  --- 0 RTS 44 [52e 5 6 0] 
s 0.634052646 _5_ MAC  --- 0 CTS 38 [3f4 6 0 0] 
r 0.634357313 _6_ MAC  --- 0 CTS 38 [3f4 6 0 0] 
s 0.634367313 _6_ MAC  --- 0 ARP 86 [13a 5 6 806] ------- [REPLY 6/6 5/5]
r 0.635055980 _5_ MAC  --- 0 ARP 28 [13a 5 6 806] ------- [REPLY 6/6 5/5]
s 0.635065980 _5_ MAC  --- 0 ACK 38 [0 6 0 0] 
r 0.635370646 _6_ MAC  --- 0 ACK 38 [0 6 0 0] 
s 0.635539980 _5_ MAC  --- 0 RTS 44 [5de 6 5 0] 
r 0.635892646 _6_ MAC  --- 0 RTS 44 [5de 6 5 0] 
s 0.635902646 _6_ MAC  --- 0 CTS 38 [4a4 5 0 0] 
r 0.636207313 _5_ MAC  --- 0 CTS 38 [4a4 5 0 0] 
s 0.636217313 _5_ MAC  --- 22 cbr 108 [13a 6 5 800] ------- [5:0 6:1 32 6] [1] 0 0
r 0.637081980 _6_ MAC  --- 22 cbr 50 [13a 6 5 800] ------- [5:0 6:1 32 6] [1] 1 0
s 0.637091980 _6_ MAC  --- 0 ACK 38 [0 5 0 0] 
r 0.637106980 _6_ AGT  --- 22 cbr 50 [13a 6 5 800] ------- [5:0 6:1 32 6] [1] 1 0
r 0.637396646 _5_ MAC  --- 0 ACK 38 [0 5 0 0] 
s 0.637565980 _6_ MAC  --- 0 RTS 44 [52e 5 6 0] 
r 0.637918646 _5_ MAC  --- 0 RTS 44 [52e 5 6 0] 
s 0.637928646 _5_ MAC  --- 0 CTS 38 [3f4 6 0 0] 
r 0.638233313 _6_ MAC  --- 0 CTS 38 [3f4 6 0 0] 
s 0.638243313 _6_ MAC  --- 0 ARP 86 [13a 5 6 806] ------- [REPLY 6/6 5/5]
r 0.638931980 _5_ MAC  --- 0 ARP 28 [13a 5 6 806] ------- [REPLY 6/6 5/5]
s 0.638941980 _5_ MAC  --- 0 ACK 38 [0 6 0 0] 
r 0.639246646 _6_ MAC  --- 0 ACK 38 [0 6 0 0] 
s 0.676679043 _46_ RTR  --- 27 message 32 [0 0 0 0] ------- [46:255 -1:255 32 0] 
s 0.677254043 _46_ MAC  --- 27 message 90 [0 ffffffff 2e 800] ------- [46:255 -1:255 32 0] 
r 0.677974710 _39_ MAC  --- 27 message 32 [0 ffffffff 2e 800] ------- [46:255 -1:255 32 0] 
r 0.677974710 _47_ MAC  --- 27 message 32 [0 ffffffff 2e 800] ------- [46:255 -1:255 32 0] 
r 0.677974781 _3_ MAC  --- 27 message 32 [0 ffffffff 2e 800] ------- [46:255 -1:255 32 0] 
r 0.677999710 _39_ RTR  --- 27 message 32 [0 ffffffff 2e 800] ------- [46:255 -1:255 32 0] 
r 0.677999710 _47_ RTR  --- 27 message 32 [0 ffffffff 2e 800] ------- [46:255 -1:255 32 0] 
r 0.677999781 _3_ RTR  --- 27 message 32 [0 ffffffff 2e 800] ------- [46:255 -1:255 32 0] 
s 0.706291847 _21_ RTR  --- 28 message 32 [0 0 0 0] ------- [21:255 -1:255 32 0] 
s 0.706906847 _21_ MAC  --- 28 message 90 [0 ffffffff 15 800] ------- [21:255 -1:255 32 0] 
r 0.707627514 _14_ MAC  --- 28 message 32 [0 ffffffff 15 800] ------- [21:255 -1:255 32 0] 
r 0.707627514 _20_ MAC  --- 28 message 32 [0 ffffffff 15 800] ------- [21:255 -1:255 32 0] 
r 0.707627514 _28_ MAC  --- 28 message 32 [0 ffffffff 15 800] ------- [21:255 -1:255 32 0] 
r 0.707627514 _22_ MAC  --- 28 message 32 [0 ffffffff 15 800] ------- [21:255 -1:255 32 0] 
r 0.707652514 _14_ RTR  --- 28 message 32 [0 ffffffff 15 800] ------- [21:255 -1:255 32 0] 
r 0.707652514 _20_ RTR  --- 28 message 32 [0 ffffffff 15 800] ------- [21:255 -1:255 32 0] 
r 0.707652514 _28_ RTR  --- 28 message 32 [0 ffffffff 15 800] ------- [21:255 -1:255 32 0] 
r 0.707652514 _22_ RTR  --- 28 message 32 [0 ffffffff 15 800] ------- [21:255 -1:255 32 0] 
v 0.75 eval {set sim_annotation {The node 6 broadcast the 'temperature' Packet to its neighbour 5 at timeslot 0.75}}
s 0.750000000 _6_ AGT  --- 29 cbr 10 [0 0 0 0] ------- [6:2 5:3 32 0] [0] 0 0
r 0.750000000 _6_ RTR  --- 29 cbr 10 [0 0 0 0] ------- [6:2 5:3 32 0] [0] 0 0
v 0.75 eval {set sim_annotation {The node 6 broadcast the 'temperature' Packet to its neighbour 7 at timeslot 0.75}}
s 0.750000000 _6_ AGT  --- 30 cbr 10 [0 0 0 0] ------- [6:3 7:0 32 0] [0] 0 0
r 0.750000000 _6_ RTR  --- 30 cbr 10 [0 0 0 0] ------- [6:3 7:0 32 0] [0] 0 0
v 0.75 eval {set sim_annotation {The node 6 broadcast the 'temperature' Packet to its neighbour 13 at timeslot 0.75}}
s 0.750000000 _6_ AGT  --- 31 cbr 10 [0 0 0 0] ------- [6:4 13:0 32 0] [0] 0 0
r 0.750000000 _6_ RTR  --- 31 cbr 10 [0 0 0 0] ------- [6:4 13:0 32 0] [0] 0 0
s 0.750000000 _6_ RTR  --- 31 cbr 30 [0 0 0 0] ------- [6:4 13:0 32 13] [0] 0 0
s 0.750535000 _6_ MAC  --- 0 ARP 86 [0 ffffffff 6 806] ------- [REQUEST 6/6 0/13]
r 0.751223667 _5_ MAC  --- 0 ARP 28 [0 ffffffff 6 806] ------- [REQUEST 6/6 0/13]
r 0.751223667 _13_ MAC  --- 0 ARP 28 [0 ffffffff 6 806] ------- [REQUEST 6/6 0/13]
r 0.751223667 _7_ MAC  --- 0 ARP 28 [0 ffffffff 6 806] ------- [REQUEST 6/6 0/13]
s 0.751278667 _13_ MAC  --- 0 RTS 44 [52e 6 d 0] 
r 0.751631333 _6_ MAC  --- 0 RTS 44 [52e 6 d 0] 
s 0.751641333 _6_ MAC  --- 0 CTS 38 [3f4 d 0 0] 
r 0.751946000 _13_ MAC  --- 0 CTS 38 [3f4 d 0 0] 
s 0.751956000 _13_ MAC  --- 0 ARP 86 [13a 6 d 806] ------- [REPLY 13/13 6/6]
r 0.752644667 _6_ MAC  --- 0 ARP 28 [13a 6 d 806] ------- [REPLY 13/13 6/6]
s 0.752654667 _6_ MAC  --- 0 ACK 38 [0 d 0 0] 
r 0.752959333 _13_ MAC  --- 0 ACK 38 [0 d 0 0] 
s 0.753368667 _6_ MAC  --- 0 RTS 44 [53e d 6 0] 
r 0.753721333 _13_ MAC  --- 0 RTS 44 [53e d 6 0] 
s 0.753731333 _13_ MAC  --- 0 CTS 38 [404 6 0 0] 
r 0.754036000 _6_ MAC  --- 0 CTS 38 [404 6 0 0] 
s 0.754046000 _6_ MAC  --- 31 cbr 88 [13a d 6 800] ------- [6:4 13:0 32 13] [0] 0 0
r 0.754750667 _13_ MAC  --- 31 cbr 30 [13a d 6 800] ------- [6:4 13:0 32 13] [0] 1 0
s 0.754760667 _13_ MAC  --- 0 ACK 38 [0 6 0 0] 
r 0.754775667 _13_ AGT  --- 31 cbr 30 [13a d 6 800] ------- [6:4 13:0 32 13] [0] 1 0
r 0.755065333 _6_ MAC  --- 0 ACK 38 [0 6 0 0] 
s 0.800000000 _6_ AGT  --- 32 cbr 10 [0 0 0 0] ------- [6:2 5:3 32 0] [1] 0 0
r 0.800000000 _6_ RTR  --- 32 cbr 10 [0 0 0 0] ------- [6:2 5:3 32 0] [1] 0 0
s 0.800000000 _6_ AGT  --- 33 cbr 10 [0 0 0 0] ------- [6:3 7:0 32 0] [1] 0 0
r 0.800000000 _6_ RTR  --- 33 cbr 10 [0 0 0 0] ------- [6:3 7:0 32 0] [1] 0 0
s 0.800000000 _6_ AGT  --- 34 cbr 10 [0 0 0 0] ------- [6:4 13:0 32 0] [1] 0 0
r 0.800000000 _6_ RTR  --- 34 cbr 10 [0 0 0 0] ------- [6:4 13:0 32 0] [1] 0 0
s 0.800000000 _6_ RTR  --- 34 cbr 30 [0 0 0 0] ------- [6:4 13:0 32 13] [1] 0 0
s 0.800375000 _6_ MAC  --- 0 RTS 44 [53e d 6 0] 
r 0.800727667 _13_ MAC  --- 0 RTS 44 [53e d 6 0] 
s 0.800737667 _13_ MAC  --- 0 CTS 38 [404 6 0 0] 
r 0.801042333 _6_ MAC  --- 0 CTS 38 [404 6 0 0] 
s 0.801052333 _6_ MAC  --- 34 cbr 88 [13a d 6 800] ------- [6:4 13:0 32 13] [1] 0 0
r 0.801757000 _13_ MAC  --- 34 cbr 30 [13a d 6 800] ------- [6:4 13:0 32 13] [1] 1 0
s 0.801767000 _13_ MAC  --- 0 ACK 38 [0 6 0 0] 
r 0.801782000 _13_ AGT  --- 34 cbr 30 [13a d 6 800] ------- [6:4 13:0 32 13] [1] 1 0
r 0.802071667 _6_ MAC  --- 0 ACK 38 [0 6 0 0] 
s 0.814532338 _37_ RTR  --- 35 message 32 [0 0 0 0] ------- [37:255 -1:255 32 0] 
s 0.815107338 _37_ MAC  --- 35 message 90 [0 ffffffff 25 800] ------- [37:255 -1:255 32 0] 
r 0.815828005 _30_ MAC  --- 35 message 32 [0 ffffffff 25 800] ------- [37:255 -1:255 32 0] 
r 0.815828005 _36_ MAC  --- 35 message 32 [0 ffffffff 25 800] ------- [37:255 -1:255 32 0] 
r 0.815828005 _44_ MAC  --- 35 message 32 [0 ffffffff 25 800] ------- [37:255 -1:255 32 0] 
r 0.815828005 _38_ MAC  --- 35 message 32 [0 ffffffff 25 800] ------- [37:255 -1:255 32 0] 
r 0.815853005 _30_ RTR  --- 35 message 32 [0 ffffffff 25 800] ------- [37:255 -1:255 32 0] 
r 0.815853005 _36_ RTR  --- 35 message 32 [0 ffffffff 25 800] ------- [37:255 -1:255 32 0] 
r 0.815853005 _44_ RTR  --- 35 message 32 [0 ffffffff 25 800] ------- [37:255 -1:255 32 0] 
r 0.815853005 _38_ RTR  --- 35 message 32 [0 ffffffff 25 800] ------- [37:255 -1:255 32 0] 
s 0.817787082 _23_ RTR  --- 37 message 32 [0 0 0 0] ------- [23:255 -1:255 32 0] 
s 0.818422082 _23_ MAC  --- 37 message 90 [0 ffffffff 17 800] ------- [23:255 -1:255 32 0] 
r 0.819142749 _16_ MAC  --- 37 message 32 [0 ffffffff 17 800] ------- [23:255 -1:255 32 0] 
r 0.819142749 _22_ MAC  --- 37 message 32 [0 ffffffff 17 800] ------- [23:255 -1:255 32 0] 
r 0.819142749 _29_ MAC  --- 37 message 32 [0 ffffffff 17 800] ------- [23:255 -1:255 32 0] 
r 0.819142749 _24_ MAC  --- 37 message 32 [0 ffffffff 17 800] ------- [23:255 -1:255 32 0] 
r 0.819167749 _16_ RTR  --- 37 message 32 [0 ffffffff 17 800] ------- [23:255 -1:255 32 0] 
r 0.819167749 _22_ RTR  --- 37 message 32 [0 ffffffff 17 800] ------- [23:255 -1:255 32 0] 
r 0.819167749 _29_ RTR  --- 37 message 32 [0 ffffffff 17 800] ------- [23:255 -1:255 32 0] 
r 0.819167749 _24_ RTR  --- 37 message 32 [0 ffffffff 17 800] ------- [23:255 -1:255 32 0] 
s 0.819583709 _35_ RTR  --- 36 message 32 [0 0 0 0] ------- [35:255 -1:255 32 0] 
s 0.820038709 _35_ MAC  --- 36 message 90 [0 ffffffff 23 800] ------- [35:255 -1:255 32 0] 
r 0.820759376 _0_ MAC  --- 36 message 32 [0 ffffffff 23 800] ------- [35:255 -1:255 32 0] 
r 0.820759376 _34_ MAC  --- 36 message 32 [0 ffffffff 23 800] ------- [35:255 -1:255 32 0] 
r 0.820759376 _42_ MAC  --- 36 message 32 [0 ffffffff 23 800] ------- [35:255 -1:255 32 0] 
r 0.820759376 _36_ MAC  --- 36 message 32 [0 ffffffff 23 800] ------- [35:255 -1:255 32 0] 
r 0.820784376 _0_ RTR  --- 36 message 32 [0 ffffffff 23 800] ------- [35:255 -1:255 32 0] 
r 0.820784376 _34_ RTR  --- 36 message 32 [0 ffffffff 23 800] ------- [35:255 -1:255 32 0] 
r 0.820784376 _42_ RTR  --- 36 message 32 [0 ffffffff 23 800] ------- [35:255 -1:255 32 0] 
r 0.820784376 _36_ RTR  --- 36 message 32 [0 ffffffff 23 800] ------- [35:255 -1:255 32 0] 
s 0.847866939 _17_ RTR  --- 38 message 32 [0 0 0 0] ------- [17:255 -1:255 32 0] 
s 0.848061939 _17_ MAC  --- 38 message 90 [0 ffffffff 11 800] ------- [17:255 -1:255 32 0] 
r 0.848782605 _10_ MAC  --- 38 message 32 [0 ffffffff 11 800] ------- [17:255 -1:255 32 0] 
r 0.848782605 _16_ MAC  --- 38 message 32 [0 ffffffff 11 800] ------- [17:255 -1:255 32 0] 
r 0.848782605 _24_ MAC  --- 38 message 32 [0 ffffffff 11 800] ------- [17:255 -1:255 32 0] 
r 0.848782605 _18_ MAC  --- 38 message 32 [0 ffffffff 11 800] ------- [17:255 -1:255 32 0] 